#++++++++++++++++++++++++++++++++++++++++++++++++++++++++++++++++++++++++++++++++++++++++++++++++++++++++++++++++++++
#
#   IPW-3 Ice Shape DATA SUBMITTAL FORM for Test Case NACA0012_AE3932, May 18th 2026
#
#       NOMENCLATURE:
#             X_ICED [m]:  X-coordinate of the iced surface
#             Y_ICED [m]:  Y-coordinate of the iced surface
#             Z_ICED [m]:  Z-coordinate of the iced surface
#
#                XXmm:  Roughness height used for the case, in mm.
#                       In the zone name, use the format KS_XXmm.
#                       For example, if k_s = 1.5 mm, use KS_1p5mm. 
#                       For Variable roughness, use KS_VAR
#
#    FLOW CONDITIONS:
#                                   AOA: 4.0 deg
#                           Mach Number: 0.3151 [-]
#       Mean aerodynamic chord (M.A.C.): 0.5334 [m]
#                       Reynolds Number: 3.9795 million (based on MAC)
#                       Freestream Temp: 267.55 [K]
#                        Reference area: 0.97548 [m2]
#               Moment Reference Center: 0.13335, 0, 0 [m] (X, Y, Z)
#
#    ICING CONDITIONS:
#                           Icing Time: 420 [s]
#                                  LWC: 0.55 [g/m3]
#                                  MVD: 20 [μm]
#
#              NOTES: 1. Please use at least 5 decimal places in the numerical values
#                     2. If data are NOT provided, please fill data fields with a numerical value of "-999" 
#
#++++++++++++++++++++++++++++++++++++++++++++++++++++++++++++++++++++++++++++++++++++++++++++++++++++++++++++++++++++

AUXDATA NUM_LAYERS  = "insert the number of total ice layers"
                                              
VARIABLES = "X_ICED" "Y_ICED" "Z_ICED"

ZONE T="SLICE_Y_0p9144_BINS01_KS_0p1mm_SINGLE_LAYER"
 5.333999912E-01 9.144000000E-01 6.720885696E-04
 5.326856105E-01 9.144000000E-01 7.721926984E-04
 5.326856087E-01 9.144000000E-01 7.721929536E-04
 5.315425825E-01 9.144000000E-01 9.320902412E-04
 5.315425796E-01 9.144000000E-01 9.320906489E-04
 5.297136059E-01 9.144000000E-01 1.187078344E-03
 5.297136013E-01 9.144000000E-01 1.187078994E-03
 5.267869283E-01 9.144000000E-01 1.592899720E-03
 5.267869208E-01 9.144000000E-01 1.592900754E-03
 5.221034553E-01 9.144000000E-01 2.236574376E-03
 5.221034434E-01 9.144000000E-01 2.236576017E-03
 5.146079728E-01 9.144000000E-01 3.252638996E-03
 5.146079537E-01 9.144000000E-01 3.252641586E-03
 5.063716134E-01 9.144000000E-01 4.349436577E-03
 5.063715924E-01 9.144000000E-01 4.349439374E-03
 4.981326465E-01 9.144000000E-01 5.426676336E-03
 4.981326255E-01 9.144000000E-01 5.426679082E-03
 4.898911689E-01 9.144000000E-01 6.484706363E-03
 4.898911479E-01 9.144000000E-01 6.484709060E-03
 4.816473508E-01 9.144000000E-01 7.524085637E-03
 4.816473297E-01 9.144000000E-01 7.524088286E-03
 4.734012515E-01 9.144000000E-01 8.545245900E-03
 4.734012305E-01 9.144000000E-01 8.545248504E-03
 4.651529421E-01 9.144000000E-01 9.548453527E-03
 4.651529210E-01 9.144000000E-01 9.548456084E-03
 4.569025169E-01 9.144000000E-01 1.053406708E-02
 4.569024959E-01 9.144000000E-01 1.053406960E-02
 4.486500190E-01 9.144000000E-01 1.150232764E-02
 4.486499979E-01 9.144000000E-01 1.150233011E-02
 4.403955480E-01 9.144000000E-01 1.245351665E-02
 4.403955269E-01 9.144000000E-01 1.245351908E-02
 4.321391558E-01 9.144000000E-01 1.338774883E-02
 4.321391347E-01 9.144000000E-01 1.338775121E-02
 4.238808358E-01 9.144000000E-01 1.430511663E-02
 4.238808147E-01 9.144000000E-01 1.430511896E-02
 4.156207051E-01 9.144000000E-01 1.520565483E-02
 4.156206841E-01 9.144000000E-01 1.520565712E-02
 4.073587294E-01 9.144000000E-01 1.608942778E-02
 4.073587084E-01 9.144000000E-01 1.608943003E-02
 3.990949761E-01 9.144000000E-01 1.695632595E-02
 3.990949551E-01 9.144000000E-01 1.695632816E-02
 3.908294571E-01 9.144000000E-01 1.780617901E-02
 3.908294360E-01 9.144000000E-01 1.780618118E-02
 3.825622066E-01 9.144000000E-01 1.863892356E-02
 3.825621855E-01 9.144000000E-01 1.863892568E-02
 3.742932141E-01 9.144000000E-01 1.945428481E-02
 3.742931930E-01 9.144000000E-01 1.945428689E-02
 3.660224799E-01 9.144000000E-01 2.025182913E-02
 3.660224588E-01 9.144000000E-01 2.025183116E-02
 3.577500463E-01 9.144000000E-01 2.103138066E-02
 3.577500252E-01 9.144000000E-01 2.103138265E-02
 3.494758816E-01 9.144000000E-01 2.179253645E-02
 3.494758605E-01 9.144000000E-01 2.179253840E-02
 3.412000021E-01 9.144000000E-01 2.253463853E-02
 3.411999810E-01 9.144000000E-01 2.253464042E-02
 3.329223832E-01 9.144000000E-01 2.325718149E-02
 3.329223621E-01 9.144000000E-01 2.325718333E-02
 3.246430387E-01 9.144000000E-01 2.395954266E-02
 3.246430176E-01 9.144000000E-01 2.395954445E-02
 3.163619281E-01 9.144000000E-01 2.464101994E-02
 3.163619070E-01 9.144000000E-01 2.464102168E-02
 3.080790743E-01 9.144000000E-01 2.530085686E-02
 3.080790532E-01 9.144000000E-01 2.530085854E-02
 2.997944494E-01 9.144000000E-01 2.593817201E-02
 2.997944282E-01 9.144000000E-01 2.593817363E-02
 2.915080579E-01 9.144000000E-01 2.655204425E-02
 2.915080368E-01 9.144000000E-01 2.655204582E-02
 2.832199134E-01 9.144000000E-01 2.714142797E-02
 2.832198923E-01 9.144000000E-01 2.714142947E-02
 2.749299727E-01 9.144000000E-01 2.770523064E-02
 2.749299516E-01 9.144000000E-01 2.770523208E-02
 2.666382326E-01 9.144000000E-01 2.824221595E-02
 2.666382115E-01 9.144000000E-01 2.824221732E-02
 2.583447538E-01 9.144000000E-01 2.875108859E-02
 2.583447327E-01 9.144000000E-01 2.875108989E-02
 2.500494896E-01 9.144000000E-01 2.923038141E-02
 2.500494684E-01 9.144000000E-01 2.923038263E-02
 2.417524976E-01 9.144000000E-01 2.967862709E-02
 2.417524765E-01 9.144000000E-01 2.967862823E-02
 2.334537921E-01 9.144000000E-01 3.009412934E-02
 2.334537709E-01 9.144000000E-01 3.009413040E-02
 2.251534350E-01 9.144000000E-01 3.047514667E-02
 2.251534138E-01 9.144000000E-01 3.047514764E-02
 2.168514890E-01 9.144000000E-01 3.081971358E-02
 2.168514678E-01 9.144000000E-01 3.081971446E-02
 2.085480365E-01 9.144000000E-01 3.112579873E-02
 2.085480153E-01 9.144000000E-01 3.112579951E-02
 2.002431835E-01 9.144000000E-01 3.139103071E-02
 2.002431623E-01 9.144000000E-01 3.139103139E-02
 1.919370499E-01 9.144000000E-01 3.161305406E-02
 1.919370287E-01 9.144000000E-01 3.161305462E-02
 1.836298340E-01 9.144000000E-01 3.178924801E-02
 1.836298128E-01 9.144000000E-01 3.178924846E-02
 1.755358115E-01 9.144000000E-01 3.191409820E-02
 1.755357908E-01 9.144000000E-01 3.191409851E-02
 1.678266692E-01 9.144000000E-01 3.198725674E-02
 1.678266495E-01 9.144000000E-01 3.198725693E-02
 1.604843325E-01 9.144000000E-01 3.201300341E-02
 1.604843138E-01 9.144000000E-01 3.201300347E-02
 1.534916185E-01 9.144000000E-01 3.199525462E-02
 1.534916006E-01 9.144000000E-01 3.199525457E-02
 1.468321130E-01 9.144000000E-01 3.193781999E-02
 1.468320961E-01 9.144000000E-01 3.193781984E-02
 1.404901764E-01 9.144000000E-01 3.184412076E-02
 1.404901603E-01 9.144000000E-01 3.184412052E-02
 1.344509089E-01 9.144000000E-01 3.171767472E-02
 1.344508935E-01 9.144000000E-01 3.171767440E-02
 1.287000762E-01 9.144000000E-01 3.156145431E-02
 1.287000615E-01 9.144000000E-01 3.156145391E-02
 1.232241362E-01 9.144000000E-01 3.137857558E-02
 1.232241222E-01 9.144000000E-01 3.137857511E-02
 1.180101473E-01 9.144000000E-01 3.117178953E-02
 1.180101340E-01 9.144000000E-01 3.117178900E-02
 1.130457791E-01 9.144000000E-01 3.094365090E-02
 1.130457665E-01 9.144000000E-01 3.094365032E-02
 1.083192578E-01 9.144000000E-01 3.069676829E-02
 1.083192458E-01 9.144000000E-01 3.069676766E-02
 1.038193907E-01 9.144000000E-01 3.043312621E-02
 1.038193793E-01 9.144000000E-01 3.043312554E-02
 9.953546817E-02 9.144000000E-01 3.015506784E-02
 9.953545725E-02 9.144000000E-01 3.015506713E-02
 9.545729307E-02 9.144000000E-01 2.986454648E-02
 9.545728267E-02 9.144000000E-01 2.986454574E-02
 9.157513373E-02 9.144000000E-01 2.956337620E-02
 9.157512383E-02 9.144000000E-01 2.956337543E-02
 8.787972499E-02 9.144000000E-01 2.925332153E-02
 8.787971557E-02 9.144000000E-01 2.925332074E-02
 8.787970580E-02 9.144000000E-01 2.925331986E-02
 8.404698427E-02 9.144000000E-01 2.890623441E-02
 8.021680703E-02 9.144000000E-01 2.853216302E-02
 8.021679726E-02 9.144000000E-01 2.853216207E-02
 7.638950412E-02 9.144000000E-01 2.812955632E-02
 7.638949437E-02 9.144000000E-01 2.812955529E-02
 7.256551011E-02 9.144000000E-01 2.769671960E-02
 7.256550036E-02 9.144000000E-01 2.769671850E-02
 6.874525616E-02 9.144000000E-01 2.723197268E-02
 6.874524643E-02 9.144000000E-01 2.723197150E-02
 6.492931339E-02 9.144000000E-01 2.673312979E-02
 6.492930366E-02 9.144000000E-01 2.673312852E-02
 6.111829860E-02 9.144000000E-01 2.619788513E-02
 6.111828889E-02 9.144000000E-01 2.619788377E-02
 5.731294708E-02 9.144000000E-01 2.562378809E-02
 5.731293738E-02 9.144000000E-01 2.562378663E-02
 5.351417420E-02 9.144000000E-01 2.500762761E-02
 5.351416452E-02 9.144000000E-01 2.500762604E-02
 4.972305317E-02 9.144000000E-01 2.434601884E-02
 4.972304351E-02 9.144000000E-01 2.434601715E-02
 4.594088185E-02 9.144000000E-01 2.363503432E-02
 4.594087221E-02 9.144000000E-01 2.363503251E-02
 4.216934501E-02 9.144000000E-01 2.286964590E-02
 4.216933540E-02 9.144000000E-01 2.286964395E-02
 3.841041696E-02 9.144000000E-01 2.204453007E-02
 3.841040738E-02 9.144000000E-01 2.204452797E-02
 3.466681737E-02 9.144000000E-01 2.115246241E-02
 3.466680782E-02 9.144000000E-01 2.115246014E-02
 3.094191744E-02 9.144000000E-01 2.018528562E-02
 3.094190794E-02 9.144000000E-01 2.018528315E-02
 2.724038170E-02 9.144000000E-01 1.913223474E-02
 2.724037226E-02 9.144000000E-01 1.913223205E-02
 2.356853820E-02 9.144000000E-01 1.797990331E-02
 2.356852884E-02 9.144000000E-01 1.797990038E-02
 1.993559817E-02 9.144000000E-01 1.671023552E-02
 1.993558891E-02 9.144000000E-01 1.671023229E-02
 1.635518735E-02 9.144000000E-01 1.529921421E-02
 1.635517822E-02 9.144000000E-01 1.529921061E-02
 1.284913530E-02 9.144000000E-01 1.371240372E-02
 1.284912636E-02 9.144000000E-01 1.371239967E-02
 9.453133177E-03 9.144000000E-01 1.190185016E-02
 9.453124520E-03 9.144000000E-01 1.190184554E-02
 9.423958844E-03 9.144000000E-01 1.189559921E-02
 5.318829229E-03 9.144000000E-01 1.101639456E-02
 5.313702558E-03 9.144000000E-01 1.101987569E-02
 -8.917199794E-03 9.144000000E-01 2.061352524E-02
 -8.928474583E-03 9.144000000E-01 2.059671064E-02
 -1.192617038E-02 9.144000000E-01 1.620426247E-02
 -1.202396347E-02 9.144000000E-01 1.606097629E-02
 -1.202432230E-02 9.144000000E-01 1.606043754E-02
 -1.210742017E-02 9.144000000E-01 1.557958439E-02
 -1.300567534E-02 9.144000000E-01 1.038178877E-02
 -1.300406264E-02 9.144000000E-01 1.037448662E-02
 -1.173465065E-02 9.144000000E-01 4.640008348E-03
 -1.171629025E-02 9.144000000E-01 4.614863954E-03
 -8.355823568E-03 9.144000000E-01 -1.168170434E-07
 -8.354244967E-03 9.144000000E-01 -2.284843856E-06
 -8.354236251E-03 9.144000000E-01 -2.296762056E-06
 -8.339002918E-03 9.144000000E-01 -1.764469720E-05
 -5.213346300E-03 9.144000000E-01 -3.166824860E-03
 -5.211975283E-03 9.144000000E-01 -3.168037956E-03
 -2.700943547E-03 9.144000000E-01 -5.417318460E-03
 -2.609853469E-03 9.144000000E-01 -5.498913441E-03
 -2.609804190E-03 9.144000000E-01 -5.498957110E-03
 -2.562582877E-03 9.144000000E-01 -5.552574977E-03
 -6.272617736E-04 9.144000000E-01 -7.750040495E-03
 -6.259587229E-04 9.144000000E-01 -7.752259161E-03
 1.050966022E-03 9.144000000E-01 -1.060127512E-02
 1.052291279E-03 9.144000000E-01 -1.060431476E-02
 2.795636806E-03 9.144000000E-01 -1.457172748E-02
 2.798084782E-03 9.144000000E-01 -1.457595658E-02
 4.211697534E-03 9.144000000E-01 -1.700714345E-02
 5.376280517E-03 9.144000000E-01 -1.901007383E-02
 5.378302392E-03 9.144000000E-01 -1.901354106E-02
 8.742834744E-03 9.144000000E-01 -2.235922779E-02
 8.743644955E-03 9.144000000E-01 -2.236003178E-02
 1.255603294E-02 9.144000000E-01 -2.464166399E-02
 1.255914485E-02 9.144000000E-01 -2.464352688E-02
 1.621790676E-02 9.144000000E-01 -2.609067675E-02
 1.657488931E-02 9.144000000E-01 -2.623187335E-02
 1.657521265E-02 9.144000000E-01 -2.623196536E-02
 1.747063237E-02 9.144000000E-01 -2.648704115E-02
 2.064127244E-02 9.144000000E-01 -2.739025263E-02
 2.064241792E-02 9.144000000E-01 -2.739057889E-02
 2.361811791E-02 9.144000000E-01 -2.803997598E-02
 2.471867148E-02 9.144000000E-01 -2.828015346E-02
 2.471910108E-02 9.144000000E-01 -2.828020440E-02
 2.882246370E-02 9.144000000E-01 -2.881545617E-02
 2.882262391E-02 9.144000000E-01 -2.881532095E-02
 3.208105877E-02 9.144000000E-01 -2.604647610E-02
 3.412146660E-02 9.144000000E-01 -2.431264578E-02
 3.412156703E-02 9.144000000E-01 -2.431256032E-02
 3.495048125E-02 9.144000000E-01 -2.438956741E-02
 3.806809425E-02 9.144000000E-01 -2.467919703E-02
 3.806837396E-02 9.144000000E-01 -2.467922341E-02
 4.198654313E-02 9.144000000E-01 -2.505058544E-02
 4.198656528E-02 9.144000000E-01 -2.505058727E-02
 4.589551730E-02 9.144000000E-01 -2.537983336E-02
 4.589569964E-02 9.144000000E-01 -2.537984677E-02
 4.979636038E-02 9.144000000E-01 -2.567237313E-02
 4.979641435E-02 9.144000000E-01 -2.567237716E-02
 5.143905395E-02 9.144000000E-01 -2.579449737E-02
 5.368523917E-02 9.144000000E-01 -2.596148751E-02
 5.368531297E-02 9.144000000E-01 -2.596149294E-02
 5.667443991E-02 9.144000000E-01 -2.617468190E-02
 5.756662393E-02 9.144000000E-01 -2.623831374E-02
 5.756664588E-02 9.144000000E-01 -2.623831523E-02
 6.023923782E-02 9.144000000E-01 -2.642028868E-02
 6.144221424E-02 9.144000000E-01 -2.650219779E-02
 6.144222412E-02 9.144000000E-01 -2.650219845E-02
 6.530727627E-02 9.144000000E-01 -2.679812840E-02
 6.530728612E-02 9.144000000E-01 -2.679812920E-02
 6.914430879E-02 9.144000000E-01 -2.728296024E-02
 6.914431857E-02 9.144000000E-01 -2.728296146E-02
 7.298388730E-02 9.144000000E-01 -2.774652643E-02
 7.298389709E-02 9.144000000E-01 -2.774652761E-02
 7.682719941E-02 9.144000000E-01 -2.817803887E-02
 7.682720920E-02 9.144000000E-01 -2.817803997E-02
 8.067379157E-02 9.144000000E-01 -2.857923586E-02
 8.067380138E-02 9.144000000E-01 -2.857923689E-02
 8.452326086E-02 9.144000000E-01 -2.895183165E-02
 8.452327068E-02 9.144000000E-01 -2.895183260E-02
 8.837526254E-02 9.144000000E-01 -2.929730487E-02
 8.837527236E-02 9.144000000E-01 -2.929730575E-02
 9.217221875E-02 9.144000000E-01 -2.961232693E-02
 9.217222843E-02 9.144000000E-01 -2.961232773E-02
 9.217223860E-02 9.144000000E-01 -2.961232851E-02
 9.616108573E-02 9.144000000E-01 -2.991750261E-02
 9.616109641E-02 9.144000000E-01 -2.991750336E-02
 1.003513395E-01 9.144000000E-01 -3.021104983E-02
 1.003513508E-01 9.144000000E-01 -3.021105054E-02
 1.047530001E-01 9.144000000E-01 -3.049107628E-02
 1.047530119E-01 9.144000000E-01 -3.049107695E-02
 1.093765426E-01 9.144000000E-01 -3.075539677E-02
 1.093765550E-01 9.144000000E-01 -3.075539740E-02
 1.142329171E-01 9.144000000E-01 -3.100199272E-02
 1.142329301E-01 9.144000000E-01 -3.100199330E-02
 1.193336735E-01 9.144000000E-01 -3.122824157E-02
 1.193336872E-01 9.144000000E-01 -3.122824209E-02
 1.246908596E-01 9.144000000E-01 -3.143179964E-02
 1.246908740E-01 9.144000000E-01 -3.143180009E-02
 1.303171560E-01 9.144000000E-01 -3.160976550E-02
 1.303171711E-01 9.144000000E-01 -3.160976588E-02
 1.362258310E-01 9.144000000E-01 -3.175941511E-02
 1.362258468E-01 9.144000000E-01 -3.175941541E-02
 1.424307867E-01 9.144000000E-01 -3.187758425E-02
 1.424308033E-01 9.144000000E-01 -3.187758446E-02
 1.489466620E-01 9.144000000E-01 -3.196106839E-02
 1.489466794E-01 9.144000000E-01 -3.196106850E-02
 1.557887171E-01 9.144000000E-01 -3.200636561E-02
 1.557887354E-01 9.144000000E-01 -3.200636562E-02
 1.629730503E-01 9.144000000E-01 -3.200978095E-02
 1.629730695E-01 9.144000000E-01 -3.200978084E-02
 1.705164827E-01 9.144000000E-01 -3.196749048E-02
 1.705165029E-01 9.144000000E-01 -3.196749024E-02
 1.784366469E-01 9.144000000E-01 -3.187531104E-02
 1.784366679E-01 9.144000000E-01 -3.187531067E-02
 1.866685030E-01 9.144000000E-01 -3.173065426E-02
 1.866685240E-01 9.144000000E-01 -3.173065377E-02
 1.948993889E-01 9.144000000E-01 -3.153922491E-02
 1.948994099E-01 9.144000000E-01 -3.153922431E-02
 2.031291375E-01 9.144000000E-01 -3.130376078E-02
 2.031291584E-01 9.144000000E-01 -3.130376007E-02
 2.113575937E-01 9.144000000E-01 -3.102674486E-02
 2.113576146E-01 9.144000000E-01 -3.102674405E-02
 2.195846185E-01 9.144000000E-01 -3.071046112E-02
 2.195846395E-01 9.144000000E-01 -3.071046022E-02
 2.278101530E-01 9.144000000E-01 -3.035705723E-02
 2.278101740E-01 9.144000000E-01 -3.035705624E-02
 2.360340830E-01 9.144000000E-01 -2.996853160E-02
 2.360341040E-01 9.144000000E-01 -2.996853052E-02
 2.442563857E-01 9.144000000E-01 -2.954669326E-02
 2.442564066E-01 9.144000000E-01 -2.954669211E-02
 2.524769851E-01 9.144000000E-01 -2.909323547E-02
 2.524770061E-01 9.144000000E-01 -2.909323423E-02
 2.606959019E-01 9.144000000E-01 -2.860973269E-02
 2.606959228E-01 9.144000000E-01 -2.860973139E-02
 2.689130584E-01 9.144000000E-01 -2.809763931E-02
 2.689130793E-01 9.144000000E-01 -2.809763793E-02
 2.771284890E-01 9.144000000E-01 -2.755830102E-02
 2.771285099E-01 9.144000000E-01 -2.755829958E-02
 2.853421882E-01 9.144000000E-01 -2.699292068E-02
 2.853422091E-01 9.144000000E-01 -2.699291918E-02
 2.935541213E-01 9.144000000E-01 -2.640271068E-02
 2.935541422E-01 9.144000000E-01 -2.640270911E-02
 3.017643028E-01 9.144000000E-01 -2.578873428E-02
 3.017643237E-01 9.144000000E-01 -2.578873265E-02
 3.099727409E-01 9.144000000E-01 -2.515196185E-02
 3.099727618E-01 9.144000000E-01 -2.515196017E-02
 3.181794677E-01 9.144000000E-01 -2.449327995E-02
 3.181794886E-01 9.144000000E-01 -2.449327821E-02
 3.263844809E-01 9.144000000E-01 -2.381351028E-02
 3.263845018E-01 9.144000000E-01 -2.381350850E-02
 3.345877432E-01 9.144000000E-01 -2.311340234E-02
 3.345877642E-01 9.144000000E-01 -2.311340051E-02
 3.427893311E-01 9.144000000E-01 -2.239361925E-02
 3.427893520E-01 9.144000000E-01 -2.239361736E-02
 3.509892272E-01 9.144000000E-01 -2.165477090E-02
 3.509892481E-01 9.144000000E-01 -2.165476897E-02
 3.591874344E-01 9.144000000E-01 -2.089732390E-02
 3.591874553E-01 9.144000000E-01 -2.089732193E-02
 3.673839286E-01 9.144000000E-01 -2.012178782E-02
 3.673839494E-01 9.144000000E-01 -2.012178580E-02
 3.755787416E-01 9.144000000E-01 -1.932861975E-02
 3.755787625E-01 9.144000000E-01 -1.932861769E-02
 3.837718707E-01 9.144000000E-01 -1.851820454E-02
 3.837718916E-01 9.144000000E-01 -1.851820243E-02
 3.919632917E-01 9.144000000E-01 -1.769062603E-02
 3.919633126E-01 9.144000000E-01 -1.769062388E-02
 4.001530022E-01 9.144000000E-01 -1.684627649E-02
 4.001530231E-01 9.144000000E-01 -1.684627430E-02
 4.083409485E-01 9.144000000E-01 -1.598524185E-02
 4.083409693E-01 9.144000000E-01 -1.598523961E-02
 4.165271758E-01 9.144000000E-01 -1.510774299E-02
 4.165271967E-01 9.144000000E-01 -1.510774071E-02
 4.247115823E-01 9.144000000E-01 -1.421360405E-02
 4.247116032E-01 9.144000000E-01 -1.421360173E-02
 4.328941810E-01 9.144000000E-01 -1.330301086E-02
 4.328942019E-01 9.144000000E-01 -1.330300849E-02
 4.410749372E-01 9.144000000E-01 -1.237589487E-02
 4.410749580E-01 9.144000000E-01 -1.237589247E-02
 4.492537833E-01 9.144000000E-01 -1.143214505E-02
 4.492538041E-01 9.144000000E-01 -1.143214260E-02
 4.574306683E-01 9.144000000E-01 -1.047145874E-02
 4.574306892E-01 9.144000000E-01 -1.047145625E-02
 4.656055031E-01 9.144000000E-01 -9.493842183E-03
 4.656055240E-01 9.144000000E-01 -9.493839646E-03
 4.737782912E-01 9.144000000E-01 -8.498917958E-03
 4.737783120E-01 9.144000000E-01 -8.498915377E-03
 4.819488919E-01 9.144000000E-01 -7.486385937E-03
 4.819489128E-01 9.144000000E-01 -7.486383310E-03
 4.901172831E-01 9.144000000E-01 -6.455926524E-03
 4.901173039E-01 9.144000000E-01 -6.455923850E-03
 4.982833190E-01 9.144000000E-01 -5.407165265E-03
 4.982833398E-01 9.144000000E-01 -5.407162543E-03
 5.064469262E-01 9.144000000E-01 -4.339479915E-03
 5.064469470E-01 9.144000000E-01 -4.339477144E-03
 5.146079691E-01 9.144000000E-01 -3.252640951E-03
 5.146079882E-01 9.144000000E-01 -3.252638361E-03
 5.221034440E-01 9.144000000E-01 -2.236569879E-03
 5.221034559E-01 9.144000000E-01 -2.236568238E-03
 5.267868852E-01 9.144000000E-01 -1.592899881E-03
 5.267868927E-01 9.144000000E-01 -1.592898847E-03
 5.297135725E-01 9.144000000E-01 -1.187074542E-03
 5.297135771E-01 9.144000000E-01 -1.187073892E-03
 5.315425607E-01 9.144000000E-01 -9.320868292E-04
 5.315425636E-01 9.144000000E-01 -9.320864215E-04
 5.326856339E-01 9.144000000E-01 -7.721909324E-04
 5.326856357E-01 9.144000000E-01 -7.721906772E-04
 5.333999978E-01 9.144000000E-01 -6.720830596E-04

